LAMMPS (2 Aug 2023 - Update 1)
DEBUG Setting up lammps_pots
ff2lammps: getting charges from ff
            vdW :     -0.00177011 kcal/mol
        Coulomb : -65229.11271885 kcal/mol
        CoulPBC :      0.00000000 kcal/mol
           bond :   2273.79630223 kcal/mol
          angle :  25279.33082653 kcal/mol
            oop :     13.63241784 kcal/mol
        torsion :   1429.23399961 kcal/mol
          TOTAL : -36233.12094276 kcal/mol
OMP_NUM_THREADS environment is not set. Defaulting to 1 thread. (src/comm.cpp:98)
  using 1 OpenMP thread(s) per MPI task
OMP_NUM_THREADS environment is not set. Defaulting to 1 thread. (src/comm.cpp:98)
  using 1 OpenMP thread(s) per MPI task

The 'box' command has been removed and will be ignored

Reading data file ...
  triclinic box = (0 0 0) to (59.254463 51.773957 71.152438) with tilt (-28.814277 0.021696 -0.015488)
WARNING: Triclinic box skew is large. LAMMPS will run inefficiently. (src/domain.cpp:220)
  1 by 1 by 1 MPI processor grid
  reading atoms ...
  4482 atoms
  scanning bonds ...
  5 = max bonds/atom
  scanning angles ...
  10 = max angles/atom
  scanning dihedrals ...
  24 = max dihedrals/atom
  scanning impropers ...
  3 = max impropers/atom
  reading bonds ...
  5184 bonds
  reading angles ...
  9234 angles
  reading dihedrals ...
  14904 dihedrals
  reading impropers ...
  2322 impropers
Finding 1-2 1-3 1-4 neighbors ...
  special bond factors lj:    0        0        0       
  special bond factors coul:  0        0        0       
     5 = max # of 1-2 neighbors
    12 = max # of 1-3 neighbors
    24 = max # of 1-4 neighbors
    23 = max # of special neighbors
  special bonds CPU = 0.002 seconds
  read_data CPU = 0.123 seconds
Finding 1-2 1-3 1-4 neighbors ...
  special bond factors lj:    0        0        1       
  special bond factors coul:  1        1        1       
     5 = max # of 1-2 neighbors
    12 = max # of 1-3 neighbors
    23 = max # of special neighbors
  special bonds CPU = 0.001 seconds
WARNING: No fixes with time integration, atoms won't move (src/verlet.cpp:60)
Generated 0 of 36 mixed pair_coeff terms from geometric mixing rule
Neighbor list info ...
  update: every = 1 steps, delay = 0 steps, check = yes
  max neighbors/atom: 2000, page size: 100000
  master list distance cutoff = 14
  ghost atom cutoff = 14
  binsize = 7, bins = 13 8 11
  1 neighbor lists, perpetual/occasional/extra = 1 0 0
  (1) pair buck6d/coul/gauss/dsf, perpetual
      attributes: half, newton on
      pair build: half/bin/newton/tri
      stencil: half/bin/3d/tri
      bin: standard
Setting up Verlet run ...
  Unit style    : real
  Current step  : 0
  Time step     : 1
WARNING: Inconsistent image flags (src/domain.cpp:815)
Per MPI rank memory allocation (min/avg/max) = 22.19 | 22.19 | 22.19 Mbytes
    PotEng          Temp           Pxx            Pyy            Pzz      
-36233.121      0             -12638.334     -12207.361     -16683.311    
Loop time of 1.263e-06 on 1 procs for 0 steps with 4482 atoms

Generated 0 of 36 mixed pair_coeff terms from geometric mixing rule
Setting up cg style minimization ...
  Unit style    : real
  Current step  : 0
WARNING: Inconsistent image flags (src/domain.cpp:815)
Per MPI rank memory allocation (min/avg/max) = 23.31 | 23.31 | 23.31 Mbytes
    PotEng          Temp           Pxx            Pyy            Pzz      
-36233.121      0             -12638.334     -12207.361     -16683.311    
-48290.757      0             -4055.6807     -3854.1937     -11380.979    
Loop time of 9.07093 on 1 procs for 148 steps with 4482 atoms

99.9% CPU use with 1 MPI tasks x 1 OpenMP threads

Minimization stats:
  Stopping criterion = force tolerance
  Energy initial, next-to-last, final = 
     -36233.1209427584  -48290.6680181672  -48290.7566680885
  Force two-norm initial, final = 5745.409 11.1592
  Force max component initial, final = 452.02656 0.43296027
  Final line search alpha, max atom move = 0.054085817 0.02341701
  Iterations, force evaluations = 148 291

MPI task timing breakdown:
Section |  min time  |  avg time  |  max time  |%varavg| %total
---------------------------------------------------------------
Pair    | 7.9236     | 7.9236     | 7.9236     |   0.0 | 87.35
Bond    | 1.1203     | 1.1203     | 1.1203     |   0.0 | 12.35
Neigh   | 0          | 0          | 0          |   0.0 |  0.00
Comm    | 0.010238   | 0.010238   | 0.010238   |   0.0 |  0.11
Output  | 0          | 0          | 0          |   0.0 |  0.00
Modify  | 0          | 0          | 0          |   0.0 |  |-------------------------------------------------------------------------------|
| Timer report                                       | elapsed   rel.%   tot.%  |
|-------------------------------------------------------------------------------|
| pylmps                                  |--------- | 0.73283s  100.0%  100.0% |
|   init ff2lammps                        |          | 0.01443s    2.0%    2.0% |
|   write data                            |-         | 0.11761s   16.0%   16.0% |
|   write input                           |          | 0.03630s    5.0%    5.0% |
|   lammps read input                     |-         | 0.12487s   17.0%   17.0% |
|-------------------------------------------------------------------------------|
|-------------------------------------------------------------------------------|
| Timer report                                       | elapsed   rel.%   tot.%  |
|-------------------------------------------------------------------------------|
| ff2lammps                               |--------- | 0.35040s  100.0%  100.0% |
|   setup pair pots                       |          | 0.00016s    0.0%    0.0% |
|   molecules addon                       |          | 0.00062s    0.2%    0.2% |
|   par loop bnd                          |          | 0.00158s    0.5%    0.5% |
|   par loop ang                          |          | 0.00245s    0.7%    0.7% |
|   par loop dih                          |          | 0.00489s    1.4%    1.4% |
|   par loop oop                          |          | 0.00069s    0.2%    0.2% |
|   par loop cha                          |          | 0.00133s    0.4%    0.4% |
|   par loop vdw                          |          | 0.00133s    0.4%    0.4% |
|   write data                            |---       | 0.11760s   33.6%   33.6% |
|   write input                           |-         | 0.03628s   10.4%   10.4% |
|-------------------------------------------------------------------------------|
            vdW :     -0.00191901 kcal/mol
        Coulomb : -65297.66064684 kcal/mol
        CoulPBC :      0.00000000 kcal/mol
           bond :   1970.19809475 kcal/mol
          angle :  13596.98155095 kcal/mol
            oop :     12.71339087 kcal/mol
        torsion :   1427.01286119 kcal/mol
          TOTAL : -48290.75666809 kcal/mol
writing mol to mil88_opt.mfpx
0.00
Other   |            | 0.01676    |            |       |  0.18

Nlocal:           4482 ave        4482 max        4482 min
Histogram: 1 0 0 0 0 0 0 0 0 0
Nghost:          10800 ave       10800 max       10800 min
Histogram: 1 0 0 0 0 0 0 0 0 0
Neighs:         459714 ave      459714 max      459714 min
Histogram: 1 0 0 0 0 0 0 0 0 0

Total # of neighbors = 459714
Ave neighs/atom = 102.56894
Ave special neighs/atom = 6.4337349
Neighbor list builds = 0
Dangerous builds = 0
Total wall time: 0:00:09
